 &FCI NORB= 10,NELEC= 10,MS2= 0,
  ORBSYM=1,1,1,1,1,5,5,5,5,5,
  ISYM=1,
 /
  0.2896521793792516E+00   1   1   1   1
 -0.6032771138795414E-01   2   1   1   1
  0.8278951411370414E-01   2   1   2   1
  0.2241940040071143E+00   2   2   1   1
 -0.6094661451126068E-02   2   2   2   1
  0.2446884715177878E+00   2   2   2   2
  0.8794957995991429E-03   3   1   1   1
 -0.3580077638048738E-01   3   1   2   1
  0.2675311179496716E-01   3   1   2   2
  0.6412316061203720E-01   3   1   3   1
 -0.6432190474471997E-01   3   2   1   1
  0.5937903135185608E-01   3   2   2   1
 -0.5634611189196371E-02   3   2   2   2
 -0.8645720987248735E-02   3   2   3   1
  0.7277651222025439E-01   3   2   3   2
  0.2483300800258964E+00   3   3   1   1
 -0.2119411392317838E-01   3   3   2   1
  0.2235433490296455E+00   3   3   2   2
 -0.2647169089200364E-02   3   3   3   1
 -0.2756374617454961E-01   3   3   3   2
  0.2447996044341519E+00   3   3   3   3
  0.9720643606109752E-03   4   1   1   1
 -0.4546605080714539E-02   4   1   2   1
 -0.2116902836171149E-01   4   1   2   2
 -0.1961739520511340E-01   4   1   3   1
  0.1502891652435346E-01   4   1   3   2
 -0.2269732853005644E-02   4   1   3   3
  0.3781850172141364E-01   4   1   4   1
 -0.7778491077944399E-02   4   2   1   1
 -0.2755009653210239E-01   4   2   2   1
 -0.2542724690044365E-02   4   2   2   2
  0.3256927865771775E-01   4   2   3   1
  0.1171807832911331E-02   4   2   3   2
  0.5281006902393538E-02   4   2   3   3
  0.7890101795032266E-02   4   2   4   1
  0.4979844813830196E-01   4   2   4   2
 -0.5867410793936315E-01   4   3   1   1
  0.5026041510280915E-01   4   3   2   1
 -0.7072264322498339E-02   4   3   2   2
 -0.4363659809821627E-02   4   3   3   1
  0.4721010004262344E-01   4   3   3   2
 -0.1502285438911933E-01   4   3   3   3
 -0.4818363220086308E-02   4   3   4   1
  0.1438842101187830E-01   4   3   4   2
  0.6138502968585278E-01   4   3   4   3
  0.2241788463485780E+00   4   4   1   1
  0.5509242480790686E-02   4   4   2   1
  0.2247601807696332E+00   4   4   2   2
 -0.7646243133387966E-02   4   4   3   1
  0.1139880510489375E-01   4   4   3   2
  0.2265035628904075E+00   4   4   3   3
  0.1250480254029845E-01   4   4   4   1
 -0.5183670228762329E-02   4   4   4   2
 -0.4042380468082245E-02   4   4   4   3
  0.2466992116312577E+00   4   4   4   4
 -0.2049132226408637E-02   5   1   1   1
  0.8761565377738981E-03   5   1   2   1
 -0.6932922582725293E-03   5   1   2   2
  0.1294666323781251E-02   5   1   3   1
 -0.1575857419624504E-01   5   1   3   2
  0.1239052618897988E-01   5   1   3   3
 -0.1873323482699230E-01   5   1   4   1
  0.1253380666673865E-01   5   1   4   2
  0.1835196699186172E-01   5   1   4   3
 -0.1433067969177377E-01   5   1   4   4
  0.3322843443840108E-01   5   1   5   1
 -0.4000586708504986E-02   5   2   1   1
  0.2458648447917930E-03   5   2   2   1
 -0.2432444382065251E-01   5   2   2   2
 -0.2191242225880533E-01   5   2   3   1
  0.1898578375133468E-02   5   2   3   2
  0.6531859339346107E-02   5   2   3   3
  0.2052907483718898E-01   5   2   4   1
  0.1747905738876614E-01   5   2   4   2
  0.1713188325854372E-01   5   2   4   3
 -0.3843418745592843E-03   5   2   4   4
  0.1312803827044379E-01   5   2   5   1
  0.3668867066524646E-01   5   2   5   2
  0.3184686702945793E-02   5   3   1   1
 -0.3632410592967972E-01   5   3   2   1
 -0.1487317410498380E-02   5   3   2   2
  0.3211191072167347E-01   5   3   3   1
  0.4520097373249997E-02   5   3   3   2
 -0.4163398722049690E-02   5   3   3   3
  0.2259961263442939E-01   5   3   4   1
  0.3579161665074848E-01   5   3   4   2
 -0.1053955678471896E-01   5   3   4   3
  0.8261244204455353E-02   5   3   4   4
 -0.1783215128075196E-01   5   3   5   1
  0.4209823759225980E-02   5   3   5   2
  0.5348310256256963E-01   5   3   5   3
 -0.6543658869116373E-01   5   4   1   1
  0.5078487979538608E-01   5   4   2   1
  0.1711251842756234E-01   5   4   2   2
  0.2641723793430040E-01   5   4   3   1
  0.5770046515049354E-01   5   4   3   2
 -0.2702827818909487E-01   5   4   3   3
 -0.2049307860205832E-01   5   4   4   1
  0.6762634067370141E-02   5   4   4   2
  0.5039798619189570E-01   5   4   4   3
 -0.1186291988651597E-02   5   4   4   4
  0.1314547722071810E-03   5   4   5   1
 -0.2071638494342419E-01   5   4   5   2
 -0.1938208760001982E-02   5   4   5   3
  0.8588932998553522E-01   5   4   5   4
  0.2388761404164292E+00   5   5   1   1
  0.2468366876293265E-01   5   5   2   1
  0.2291914513689309E+00   5   5   2   2
 -0.3662074226561124E-01   5   5   3   1
 -0.4057553528852662E-02   5   5   3   2
  0.2393909148842069E+00   5   5   3   3
 -0.4361361964859766E-02   5   5   4   1
 -0.3777830748574159E-01   5   5   4   2
 -0.7681735634599125E-02   5   5   4   3
  0.2443467048465312E+00   5   5   4   4
 -0.7062513393959824E-03   5   5   5   1
 -0.4325198824446715E-02   5   5   5   2
 -0.3740266503070647E-01   5   5   5   3
 -0.1423552024846249E-01   5   5   5   4
  0.2861258804128258E+00   5   5   5   5
  0.2285148392290224E+00   6   6   1   1
  0.2446979065579841E-01   6   6   2   1
  0.2184050571297098E+00   6   6   2   2
 -0.3598946591649810E-01   6   6   3   1
 -0.3958949868134831E-02   6   6   3   2
  0.2274855621288383E+00   6   6   3   3
 -0.3972954729164061E-02   6   6   4   1
 -0.3599911691323530E-01   6   6   4   2
 -0.7243092506031730E-02   6   6   4   3
  0.2302402144403909E+00   6   6   4   4
 -0.6692259879802339E-03   6   6   5   1
 -0.3633275950150847E-02   6   6   5   2
 -0.3440713911109373E-01   6   6   5   3
 -0.1376973451422673E-01   6   6   5   4
  0.2650202239179711E+00   6   6   5   5
  0.2542577469298560E+00   6   6   6   6
  0.6245996608650123E-01   7   6   1   1
 -0.4835540510708303E-01   7   6   2   1
 -0.1977398289013145E-01   7   6   2   2
 -0.2860445090082141E-01   7   6   3   1
 -0.5523444039606544E-01   7   6   3   2
  0.2548519649900461E-01   7   6   3   3
  0.2123998352557736E-01   7   6   4   1
 -0.6630124107950447E-02   7   6   4   2
 -0.4773647450731593E-01   7   6   4   3
  0.9101974567244875E-03   7   6   4   4
  0.3322246580395749E-04   7   6   5   1
  0.2083817414805463E-01   7   6   5   2
  0.1439715637172934E-02   7   6   5   3
 -0.7946152940597959E-01   7   6   5   4
  0.1337349162576377E-01   7   6   5   5
  0.1319454149954750E-01   7   6   6   6
  0.7909727995232063E-01   7   6   7   6
  0.2188988434370868E+00   7   7   1   1
  0.6208458328923097E-02   7   7   2   1
  0.2204360889022395E+00   7   7   2   2
 -0.7698872449715665E-02   7   7   3   1
  0.1565915517793754E-01   7   7   3   2
  0.2219837342995037E+00   7   7   3   3
  0.1540970875411160E-01   7   7   4   1
 -0.3637931745172432E-02   7   7   4   2
 -0.3606612130449764E-02   7   7   4   3
  0.2381013969094561E+00   7   7   4   4
 -0.1532094341379956E-01   7   7   5   1
 -0.6307902709717511E-03   7   7   5   2
  0.6918927496345867E-02   7   7   5   3
 -0.2575284374852910E-03   7   7   5   4
  0.2368373336950027E+00   7   7   5   5
  0.2255415285958058E+00   7   7   6   6
 -0.2755011360549807E-03   7   7   7   6
  0.2370626098173667E+00   7   7   7   7
  0.3305136724397792E-02   8   6   1   1
 -0.3554624074977233E-01   8   6   2   1
 -0.1190373998282391E-02   8   6   2   2
  0.3106101953253725E-01   8   6   3   1
  0.7708539418862439E-02   8   6   3   2
 -0.4019759150342860E-02   8   6   3   3
  0.2488239009097564E-01   8   6   4   1
  0.3514299989391393E-01   8   6   4   2
 -0.9926350089367762E-02   8   6   4   3
  0.6818527438379373E-02   8   6   4   4
 -0.1898913449481872E-01   8   6   5   1
  0.4265364815188296E-02   8   6   5   2
  0.5055670166317956E-01   8   6   5   3
 -0.1615236748826583E-02   8   6   5   4
 -0.3479431960562342E-01   8   6   5   5
 -0.3357002973285694E-01   8   6   6   6
  0.1191368882950248E-02   8   6   7   6
  0.1024663422408780E-01   8   6   7   7
  0.5238025976708732E-01   8   6   8   6
  0.5718292062554547E-01   8   7   1   1
 -0.4941678395914866E-01   8   7   2   1
  0.5989230890804357E-02   8   7   2   2
  0.4228467008801922E-02   8   7   3   1
 -0.4603597535372091E-01   8   7   3   2
  0.1020813500045226E-01   8   7   3   3
  0.4903757820663402E-02   8   7   4   1
 -0.1719010555015364E-01   8   7   4   2
 -0.5838698320493460E-01   8   7   4   3
  0.3607508500198359E-02   8   7   4   4
 -0.2009081338844207E-01   8   7   5   1
 -0.1558472260707988E-01   8   7   5   2
  0.1005095294422216E-01   8   7   5   3
 -0.4950534258510486E-01   8   7   5   4
  0.6678948161339042E-02   8   7   5   5
  0.6453265319661960E-02   8   7   6   6
  0.4690928924038660E-01   8   7   7   6
  0.2215066600060780E-02   8   7   7   7
  0.9928490879581373E-02   8   7   8   6
  0.6049039908122213E-01   8   7   8   7
  0.2498717052592005E+00   8   8   1   1
 -0.2113926222359923E-01   8   8   2   1
  0.2246822333058663E+00   8   8   2   2
 -0.2723632472527040E-02   8   8   3   1
 -0.2718876327232013E-01   8   8   3   2
  0.2415340058285798E+00   8   8   3   3
 -0.2140557206755640E-02   8   8   4   1
  0.1409820174621889E-02   8   8   4   2
 -0.1220619268163208E-01   8   8   4   3
  0.2293352010887191E+00   8   8   4   4
  0.9938860362733197E-02   8   8   5   1
  0.8545247214209972E-02   8   8   5   2
 -0.4503856734728055E-02   8   8   5   3
 -0.2737153580132935E-01   8   8   5   4
  0.2419871929326715E+00   8   8   5   5
  0.2289445946606888E+00   8   8   6   6
  0.2543776768308592E-01   8   8   7   6
  0.2226407110617434E+00   8   8   7   7
 -0.3897196131234467E-02   8   8   8   6
  0.1418753528329014E-01   8   8   8   7
  0.2478154802728194E+00   8   8   8   8
  0.3423506180593152E-02   9   6   1   1
 -0.2748930834574393E-03   9   6   2   1
  0.2370683027438288E-01   9   6   2   2
  0.2218946057142594E-01   9   6   3   1
 -0.1783373206066539E-02   9   6   3   2
 -0.9780439467691464E-02   9   6   3   3
 -0.2063087162733510E-01   9   6   4   1
 -0.1920175929572526E-01   9   6   4   2
 -0.1508194138349487E-01   9   6   4   3
  0.2763893136635436E-03   9   6   4   4
 -0.1412697611116737E-01   9   6   5   1
 -0.3513494999487322E-01   9   6   5   2
 -0.4110916225487820E-02   9   6   5   3
  0.2036765476635184E-01   9   6   5   4
  0.3406792241758982E-02   9   6   5   5
  0.2922303370100590E-02   9   6   6   6
 -0.2111746384109612E-01   9   6   7   6
 -0.6442072558338298E-03   9   6   7   7
 -0.4208878421817914E-02   9   6   8   6
  0.1743028636509492E-01   9   6   8   7
 -0.6515490647784426E-02   9   6   8   8
  0.3667445248817024E-01   9   6   9   6
 -0.8661396501640776E-02   9   7   1   1
 -0.2750919761003121E-01   9   7   2   1
 -0.3443731514939772E-02   9   7   2   2
  0.3292845947971565E-01   9   7   3   1
  0.1260526032486665E-02   9   7   3   2
  0.1020611209824075E-02   9   7   3   3
  0.7604315406130635E-02   9   7   4   1
  0.4757790071586832E-01   9   7   4   2
  0.1674397891289138E-01   9   7   4   3
 -0.5397564700210079E-02   9   7   4   4
  0.1116739667106024E-01   9   7   5   1
  0.1900714703584437E-01   9   7   5   2
  0.3615320302524322E-01   9   7   5   3
  0.6972729299324147E-02   9   7   5   4
 -0.3947897933879576E-01   9   7   5   5
 -0.3696565277231730E-01   9   7   6   6
 -0.7013239233328483E-02   9   7   7   6
 -0.5455137592374795E-02   9   7   7   7
  0.3514899989667275E-01   9   7   8   6
 -0.1479787901053343E-01   9   7   8   7
  0.3576799352731278E-02   9   7   8   8
 -0.1700456819011693E-01   9   7   9   6
  0.4996714229120883E-01   9   7   9   7
  0.6635025870921943E-01   9   8   1   1
 -0.6100840969882418E-01   9   8   2   1
  0.6389258462561800E-02   9   8   2   2
  0.8792682917657320E-02   9   8   3   1
 -0.7109523681023765E-01   9   8   3   2
  0.2832763084477898E-01   9   8   3   3
 -0.1217413101222153E-01   9   8   4   1
 -0.7778055394746970E-03   9   8   4   2
 -0.4855532817750679E-01   9   8   4   3
 -0.1324097330017821E-01   9   8   4   4
  0.1413915476421546E-01   9   8   5   1
 -0.1731969429672215E-02   9   8   5   2
 -0.5546957335562146E-02   9   8   5   3
 -0.6012374545236887E-01   9   8   5   4
  0.4463759243251098E-02   9   8   5   5
  0.4301732122207279E-02   9   8   6   6
  0.5635954804463050E-01   9   8   7   6
 -0.1197514387354824E-01   9   8   7   7
 -0.4100610322688858E-02   9   8   8   6
  0.4801663691259635E-01   9   8   8   7
  0.2894639580766575E-01   9   8   8   8
  0.1850600047093534E-02   9   8   9   6
 -0.7766560485591104E-03   9   8   9   7
  0.7563758436465526E-01   9   8   9   8
  0.2329458829268000E+00   9   9   1   1
 -0.7361234263798134E-02   9   9   2   1
  0.2502278925370592E+00   9   9   2   2
  0.2467264294895166E-01   9   9   3   1
 -0.7127077657029038E-02   9   9   3   2
  0.2322507395760857E+00   9   9   3   3
 -0.2019837643707209E-01   9   9   4   1
 -0.3015309271334726E-02   9   9   4   2
 -0.8359176012369067E-02   9   9   4   3
  0.2348692012241149E+00   9   9   4   4
 -0.8601577575878747E-03   9   9   5   1
 -0.2424694171017642E-01   9   9   5   2
 -0.1691256152336062E-02   9   9   5   3
  0.1812194058330830E-01   9   9   5   4
  0.2413084195400055E+00   9   9   5   5
  0.2260193863253061E+00   9   9   6   6
 -0.1628803541611013E-01   9   9   7   6
  0.2281806235502936E+00   9   9   7   7
 -0.1159075013031798E-02   9   9   8   6
  0.7479615463080382E-02   9   9   8   7
  0.2347714391918898E+00   9   9   8   8
  0.2333271785585099E-01   9   9   9   6
 -0.3742234264625241E-02   9   9   9   7
  0.7919576630868126E-02   9   9   9   8
  0.2639516329665733E+00   9   9   9   9
 -0.2392397829720574E-02  10   6   1   1
  0.9692747322736874E-03  10   6   2   1
 -0.1129116988175380E-02  10   6   2   2
  0.1242045216667964E-02  10   6   3   1
 -0.1517892784643416E-01  10   6   3   2
  0.1033079160153819E-01  10   6   3   3
 -0.1841216307575879E-01  10   6   4   1
  0.1138542940539559E-01  10   6   4   2
  0.1981529206734038E-01  10   6   4   3
 -0.1475687775914758E-01  10   6   4   4
  0.3246362809924529E-01  10   6   5   1
  0.1415129617782283E-01  10   6   5   2
 -0.1826206563784001E-01  10   6   5   3
  0.1483331661086256E-03  10   6   5   4
 -0.1062159897979262E-02  10   6   5   5
 -0.9948400487196998E-03  10   6   6   6
 -0.9463887624603864E-04  10   6   7   6
 -0.1560380932953815E-01  10   6   7   7
 -0.1862252559239722E-01  10   6   8   6
 -0.1893073738398897E-01  10   6   8   7
  0.1140469355546686E-01  10   6   8   8
 -0.1317338364068755E-01  10   6   9   6
  0.1240205089783251E-01  10   6   9   7
  0.1461064295073786E-01  10   6   9   8
 -0.1133481276889592E-02  10   6   9   9
  0.3313723534211905E-01  10   6  10   6
 -0.9583566095880641E-03  10   7   1   1
  0.5079955567020015E-02  10   7   2   1
  0.2112210182903263E-01  10   7   2   2
  0.1877441528546994E-01  10   7   3   1
 -0.1262931419070765E-01  10   7   3   2
  0.2248715340153004E-02  10   7   3   3
 -0.3610262075232398E-01  10   7   4   1
 -0.8214349055928716E-02  10   7   4   2
  0.5114182477050827E-02  10   7   4   3
 -0.1395102350298709E-01  10   7   4   4
  0.1781589818633886E-01  10   7   5   1
 -0.2088068330882283E-01  10   7   5   2
 -0.2455607370901008E-01  10   7   5   3
  0.2176276846761244E-01  10   7   5   4
  0.5364895810626597E-02  10   7   5   5
  0.4481313116830295E-02  10   7   6   6
 -0.2124825017302749E-01  10   7   7   6
 -0.1297968390469415E-01  10   7   7   7
 -0.2330458290784235E-01  10   7   8   6
 -0.4888689231428966E-02  10   7   8   7
  0.2393444470956121E-02  10   7   8   8
  0.2077085169242825E-01  10   7   9   6
 -0.8184837168971386E-02  10   7   9   7
  0.1355580281601802E-01  10   7   9   8
  0.2157216197084903E-01  10   7   9   9
  0.1809852504165588E-01  10   7  10   6
  0.3753272943268031E-01  10   7  10   7
  0.4863513886513298E-03  10   8   1   1
 -0.3612514565348623E-01  10   8   2   1
  0.2483120366714357E-01  10   8   2   2
  0.6316535038679003E-01  10   8   3   1
 -0.8397769706860295E-02  10   8   3   2
 -0.3085896133873274E-02  10   8   3   3
 -0.1846910938691340E-01  10   8   4   1
  0.3372556087301440E-01  10   8   4   2
 -0.4526601410299542E-02  10   8   4   3
 -0.8412786727358448E-02  10   8   4   4
  0.1059977101705988E-02  10   8   5   1
 -0.2189965379786189E-01  10   8   5   2
  0.3373696192816278E-01  10   8   5   3
  0.2904483614938599E-01  10   8   5   4
 -0.4010987778496818E-01  10   8   5   5
 -0.3669308984965568E-01  10   8   6   6
 -0.2714536329396324E-01  10   8   7   6
 -0.7842133202445242E-02  10   8   7   7
  0.3232284747050541E-01  10   8   8   6
  0.4321737640662839E-02  10   8   8   7
 -0.3246236544965243E-02  10   8   8   8
  0.2169904570860702E-01  10   8   9   6
  0.3426501322634121E-01  10   8   9   7
  0.9212490658889974E-02  10   8   9   8
  0.2691378850403733E-01  10   8   9   9
  0.1051841526755460E-02  10   8  10   6
  0.1903388056444980E-01  10   8  10   7
  0.6775678818679556E-01  10   8  10   8
  0.6431056471710424E-01  10   9   1   1
 -0.8671633283643361E-01  10   9   2   1
  0.6327566207388381E-02  10   9   2   2
  0.3655903564405975E-01  10   9   3   1
 -0.6356688478093536E-01  10   9   3   2
  0.2294364727047897E-01  10   9   3   3
  0.4968962875697779E-02  10   9   4   1
  0.2873382785575884E-01  10   9   4   2
 -0.5457093750581137E-01  10   9   4   3
 -0.5828197250911103E-02  10   9   4   4
 -0.1051632329882195E-02  10   9   5   1
 -0.2697194697801660E-04  10   9   5   2
  0.3949806118017729E-01  10   9   5   3
 -0.5652602805928944E-01  10   9   5   4
 -0.2846153870567756E-01  10   9   5   5
 -0.2434126775273502E-01  10   9   6   6
  0.5208735332172011E-01  10   9   7   6
 -0.6459927977443306E-02  10   9   7   7
  0.3700266351884665E-01  10   9   8   6
  0.5333882163872362E-01  10   9   8   7
  0.2304506297587519E-01  10   9   8   8
  0.1271832751880784E-03  10   9   9   6
  0.2915873332599184E-01  10   9   9   7
  0.6667546528308513E-01  10   9   9   8
  0.7682355288569143E-02  10   9   9   9
 -0.1174646514838459E-02  10   9  10   6
 -0.5974374795748889E-02  10   9  10   7
  0.3952171806040101E-01  10   9  10   8
  0.9729718209738525E-01  10   9  10   9
  0.3057040346008862E+00  10  10   1   1
 -0.6366474748110090E-01  10  10   2   1
  0.2369578328758929E+00  10  10   2   2
  0.5318978654337871E-03  10  10   3   1
 -0.6877269843706330E-01  10  10   3   2
  0.2642669918669442E+00  10  10   3   3
  0.9420072286176230E-03  10  10   4   1
 -0.8646688491922898E-02  10  10   4   2
 -0.6390246205275509E-01  10  10   4   3
  0.2403977532826988E+00  10  10   4   4
 -0.2196218579965964E-02  10  10   5   1
 -0.4623260992213172E-02  10  10   5   2
  0.3161434769951510E-02  10  10   5   3
 -0.7231784543682829E-01  10  10   5   4
  0.2592335271649668E+00  10  10   5   5
  0.2415820608521594E+00  10  10   6   6
  0.6655724076657149E-01  10  10   7   6
  0.2318389811486535E+00  10  10   7   7
  0.3095029805518465E-02  10  10   8   6
  0.6138294041079687E-01  10  10   8   7
  0.2669389591071161E+00  10  10   8   8
  0.3663008888217148E-02  10  10   9   6
 -0.1007959082206590E-01  10  10   9   7
  0.7253922382062618E-01  10  10   9   8
  0.2511088748646728E+00  10  10   9   9
 -0.2782816876251868E-02  10  10  10   6
 -0.1023977534833409E-02  10  10  10   7
  0.1737028082550440E-03  10  10  10   8
  0.7133792585623279E-01  10  10  10   9
  0.3349559310657786E+00  10  10  10  10
  0.1112534109108944E+00   6   1   6   1
  0.6833500213025293E-01   6   2   6   1
  0.9338041041135592E-01   6   2   6   2
 -0.4585467209107694E-01   6   3   6   1
  0.1015541873746618E-02   6   3   6   2
  0.6313390533669749E-01   6   3   6   3
 -0.5411640194206681E-02   6   4   6   1
 -0.2868766316607122E-01   6   4   6   2
  0.2492023724925227E-02   6   4   6   3
  0.4817675253237517E-01   6   4   6   4
 -0.5848723317943235E-03   6   5   6   1
  0.2044521401110299E-03   6   5   6   2
 -0.1772768155889451E-01   6   5   6   3
 -0.3297895984140746E-02   6   5   6   4
  0.4846210603355509E-01   6   5   6   5
  0.4416496187958891E-01   7   1   6   1
 -0.2135302323243558E-01   7   1   6   2
 -0.4730121185644885E-01   7   1   6   3
  0.2186746508530072E-01   7   1   6   4
  0.4520186373524936E-03   7   1   6   5
  0.6338961701964733E-01   7   1   7   1
 -0.6518712368375128E-01   7   2   6   1
 -0.7349519231435124E-01   7   2   6   2
 -0.2110583137209798E-01   7   2   6   3
  0.3905386625380965E-03   7   2   6   4
  0.1825060358567128E-01   7   2   6   5
  0.7157826911732564E-02   7   2   7   1
  0.9098585435261332E-01   7   2   7   2
 -0.8186718707403667E-01   7   3   6   1
 -0.7378456210368772E-01   7   3   6   2
  0.1443512723666440E-01   7   3   6   3
 -0.1045271525794533E-01   7   3   6   4
 -0.1502008126406859E-02   7   3   6   5
 -0.1080705629691738E-01   7   3   7   1
  0.7293307775742690E-01   7   3   7   2
  0.9168246557538959E-01   7   3   7   3
  0.3475177715631168E-01   7   4   6   1
 -0.6005839151626845E-02   7   4   6   2
 -0.3813163999027713E-01   7   4   6   3
 -0.4903558135512982E-02   7   4   6   4
 -0.3109562579492607E-01   7   4   6   5
  0.3973267170352186E-01   7   4   7   1
  0.7695657859070266E-02   7   4   7   2
 -0.1079596574006482E-02   7   4   7   3
  0.6553100350279786E-01   7   4   7   4
  0.6152733498752831E-02   7   5   6   1
  0.2918445893190168E-01   7   5   6   2
 -0.2734316954596833E-02   7   5   6   3
 -0.4619645607609772E-01   7   5   6   4
  0.3077461677749498E-02   7   5   6   5
 -0.2146461150662558E-01   7   5   7   1
 -0.1520402339131380E-02   7   5   7   2
  0.7130336432791587E-02   7   5   7   3
  0.5218004352833145E-02   7   5   7   4
  0.4828119094562539E-01   7   5   7   5
  0.3043687812406802E-02   8   1   6   1
 -0.2782651895693241E-01   8   1   6   2
  0.1427456398512578E-01   8   1   6   3
  0.3400217548042317E-01   8   1   6   4
 -0.2155776849943487E-01   8   1   6   5
  0.2748587365677178E-01   8   1   7   1
 -0.1675957322200579E-01   8   1   7   2
  0.2520381288271283E-02   8   1   7   3
  0.6348630619295414E-02   8   1   7   4
 -0.3388370126547941E-01   8   1   7   5
  0.5560953223724688E-01   8   1   8   1
 -0.4486180394302576E-01   8   2   6   1
 -0.3811466861346713E-02   8   2   6   2
  0.3702054650780991E-01   8   2   6   3
  0.1959900062346727E-01   8   2   6   4
  0.4012322148241671E-02   8   2   6   5
 -0.3964938175279360E-01   8   2   7   1
  0.1825406657572855E-02   8   2   7   2
 -0.1058468021468258E-02   8   2   7   3
 -0.4050139988001688E-01   8   2   7   4
 -0.1751922689181205E-01   8   2   7   5
 -0.7148442078407246E-02   8   2   8   1
  0.5584195395313136E-01   8   2   8   2
  0.5923402619129851E-01   8   3   6   1
  0.5459759034389378E-01   8   3   6   2
 -0.7766425180142139E-02   8   3   6   3
 -0.7304047774888062E-02   8   3   6   4
  0.2818613659606639E-01   8   3   6   5
  0.6049965961060126E-02   8   3   7   1
 -0.5343068071213324E-01   8   3   7   2
 -0.5453926026098468E-01   8   3   7   3
 -0.2463448909895818E-01   8   3   7   4
  0.7576271835522865E-02   8   3   7   5
 -0.1366015481247985E-02   8   3   8   1
 -0.1307920746382772E-01   8   3   8   2
  0.7032839330726563E-01   8   3   8   3
  0.8326204883955893E-01   8   4   6   1
  0.7485840217688770E-01   8   4   6   2
 -0.1439412743667655E-01   8   4   6   3
  0.7032331036907346E-02   8   4   6   4
  0.1371706909332534E-02   8   4   6   5
  0.1094700721115661E-01   8   4   7   1
 -0.7367569916054173E-01   8   4   7   2
 -0.8916631655391419E-01   8   4   7   3
  0.1540372041259483E-02   8   4   7   4
 -0.8602679979698198E-02   8   4   7   5
 -0.2449633892029824E-02   8   4   8   1
 -0.2876054613661230E-02   8   4   8   2
  0.5570677294504682E-01   8   4   8   3
  0.9373588207193549E-01   8   4   8   4
 -0.4721996590520929E-01   8   5   6   1
  0.8741432415411625E-03   8   5   6   2
  0.6195733193561135E-01   8   5   6   3
  0.2428930805338611E-02   8   5   6   4
 -0.1693361692416254E-01   8   5   6   5
 -0.4842258050596846E-01   8   5   7   1
 -0.1843828165079291E-01   8   5   7   2
  0.1465848992720667E-01   8   5   7   3
 -0.3968018266601491E-01   8   5   7   4
 -0.2714538009672823E-02   8   5   7   5
  0.1159994962765458E-01   8   5   8   1
  0.3896537123886234E-01   8   5   8   2
 -0.8297244498253687E-02   8   5   8   3
 -0.1549328066966869E-01   8   5   8   4
  0.6635251738917065E-01   8   5   8   5
  0.2844748837720383E-02   9   1   6   1
  0.9353642781938355E-03   9   1   6   2
  0.1790176012453775E-01   9   1   6   3
 -0.1350804769866475E-01   9   1   6   4
 -0.1940696704430516E-01   9   1   6   5
  0.1883758030491611E-04   9   1   7   1
 -0.1820680113521862E-01   9   1   7   2
  0.1418874144971751E-01   9   1   7   3
  0.6609221658872888E-02   9   1   7   4
  0.1186499469338592E-01   9   1   7   5
  0.2181608783961919E-01   9   1   8   1
 -0.2157504205626185E-01   9   1   8   2
  0.4807239426535274E-02   9   1   8   3
 -0.1139829496395295E-01   9   1   8   4
  0.1620486547182043E-01   9   1   8   5
  0.3581778223496161E-01   9   1   9   1
  0.3606672034936155E-03   9   2   6   1
  0.2539259818879986E-01   9   2   6   2
 -0.8010614492272918E-03   9   2   6   3
 -0.3194184948013547E-01   9   2   6   4
 -0.2573200417134021E-01   9   2   6   5
 -0.2312579252627002E-01   9   2   7   1
  0.6086835536555933E-03   9   2   7   2
  0.7381384461527100E-03   9   2   7   3
  0.2838312899389535E-01   9   2   7   4
  0.3241032649671680E-01   9   2   7   5
 -0.3321609129419460E-01   9   2   8   1
 -0.2105272645913455E-02   9   2   8   2
 -0.2643880483567757E-01   9   2   8   3
 -0.4530256697656507E-03   9   2   8   4
 -0.5545240421267943E-03   9   2   8   5
 -0.1307749814143655E-02   9   2   9   1
  0.5837501722889516E-01   9   2   9   2
  0.4620923284768534E-01   9   3   6   1
  0.4273458281174838E-02   9   3   6   2
 -0.3835662224144606E-01   9   3   6   3
 -0.1678930016777521E-01   9   3   6   4
 -0.3965203737113979E-02   9   3   6   5
  0.4080143101429647E-01   9   3   7   1
 -0.2598028968872903E-02   9   3   7   2
 -0.3028613047056235E-02   9   3   7   3
  0.4128684802495913E-01   9   3   7   4
  0.1891418051441310E-01   9   3   7   5
  0.7304610494395933E-02   9   3   8   1
 -0.5391267432845721E-01   9   3   8   2
  0.1369789513234331E-01   9   3   8   3
  0.1329299824499617E-02   9   3   8   4
 -0.3994043053866004E-01   9   3   8   5
  0.1940653340383765E-01   9   3   9   1
  0.1722790814961104E-02   9   3   9   2
  0.5709142951309291E-01   9   3   9   3
 -0.6784195218521892E-01   9   4   6   1
 -0.7549311468222253E-01   9   4   6   2
 -0.1759661477367431E-01   9   4   6   3
  0.1263135949705234E-02   9   4   6   4
  0.1732949775089054E-01   9   4   6   5
  0.6223963281418819E-02   9   4   7   1
  0.9017300676347292E-01   9   4   7   2
  0.7513142484474089E-01   9   4   7   3
  0.7237160821534029E-02   9   4   7   4
 -0.1462714398935763E-02   9   4   7   5
 -0.1413846887685943E-01   9   4   8   1
  0.2816933951952902E-02   9   4   8   2
 -0.5549638661701771E-01   9   4   8   3
 -0.7704282025933910E-01   9   4   8   4
 -0.1961380001271726E-01   9   4   8   5
 -0.1704931521991530E-01   9   4   9   1
  0.4808612298238636E-03   9   4   9   2
 -0.3414593269028290E-02   9   4   9   3
  0.9564711996437320E-01   9   4   9   4
 -0.7192324037729704E-01   9   5   6   1
 -0.9590753642830852E-01   9   5   6   2
 -0.8089561322702996E-03   9   5   6   3
  0.2889271727220673E-01   9   5   6   4
 -0.1503463500389374E-03   9   5   6   5
  0.2024071999725739E-01   9   5   7   1
  0.7729562311536346E-01   9   5   7   2
  0.7780917255199127E-01   9   5   7   3
  0.6112764021905645E-02   9   5   7   4
 -0.3067526919142648E-01   9   5   7   5
  0.2726075394346005E-01   9   5   8   1
  0.4346008920297014E-02   9   5   8   2
 -0.5790999985498992E-01   9   5   8   3
 -0.7983608050538624E-01   9   5   8   4
 -0.6618374383679850E-03   9   5   8   5
 -0.1180339919367004E-02   9   5   9   1
 -0.2590464636803995E-01   9   5   9   2
 -0.4862944524371685E-02   9   5   9   3
  0.8089134377394536E-01   9   5   9   4
  0.1049566801313041E+00   9   5   9   5
  0.9304469270096130E-03  10   1   6   1
  0.5075738375014481E-03  10   1   6   2
  0.1078271571645065E-02  10   1   6   3
 -0.1665956927783932E-01  10   1   6   4
  0.2887366084983607E-01  10   1   6   5
 -0.2118487728393007E-03  10   1   7   1
  0.3505592657315057E-03  10   1   7   2
  0.1326164633830906E-01  10   1   7   3
 -0.2516364504653450E-01  10   1   7   4
  0.1595680120714215E-01  10   1   7   5
  0.5472648641738704E-03  10   1   8   1
 -0.1689872968988341E-01  10   1   8   2
  0.3285224406030113E-01  10   1   8   3
 -0.1230104509132843E-01  10   1   8   4
  0.8817254154582184E-03  10   1   8   5
  0.1691916876146361E-01  10   1   9   1
 -0.2739339174014895E-01  10   1   9   2
  0.1623210770928752E-01  10   1   9   3
  0.2009631313311465E-03  10   1   9   4
 -0.6145251905142080E-03  10   1   9   5
  0.4668152372404615E-01  10   1  10   1
 -0.3215784303620926E-02  10   2   6   1
 -0.1435674984297267E-02  10   2   6   2
 -0.1702889035947933E-01  10   2   6   3
  0.1214800622017381E-01  10   2   6   4
  0.1964764457131075E-01  10   2   6   5
 -0.9140294097702825E-04  10   2   7   1
  0.1814377527902080E-01  10   2   7   2
 -0.1184755416359871E-01  10   2   7   3
 -0.7017942446873949E-02  10   2   7   4
 -0.1308419916297858E-01  10   2   7   5
 -0.2106500143718714E-01  10   2   8   1
  0.1992796118521718E-01  10   2   8   2
 -0.4699317055860064E-02  10   2   8   3
  0.1276469283550454E-01  10   2   8   4
 -0.1685043072031603E-01  10   2   8   5
 -0.3425175303641315E-01  10   2   9   1
  0.8471224011270219E-03  10   2   9   2
 -0.2101003369840639E-01  10   2   9   3
  0.1794777368242403E-01  10   2   9   4
  0.1608106702183487E-02  10   2   9   5
 -0.1618562668941129E-01  10   2  10   1
  0.3506438744645719E-01  10   2  10   2
  0.2895103027542447E-02  10   3   6   1
 -0.2774642296918250E-01  10   3   6   2
  0.1219500838978360E-01  10   3   6   3
  0.3423884880876948E-01  10   3   6   4
 -0.2112898171489761E-01  10   3   6   5
  0.2746878993630038E-01  10   3   7   1
 -0.1449706366361716E-01  10   3   7   2
  0.2530018676680993E-02  10   3   7   3
  0.6522966541828540E-02  10   3   7   4
 -0.3509428001101537E-01  10   3   7   5
  0.5385138764852034E-01  10   3   8   1