 &FCI NORB=  4,NELEC=  4,MS2= 0,
  ORBSYM=1,1,5,5,
  ISYM=1,
 /
  0.4414449126118377E+00   1   1   1   1
 -0.7290454616884991E-01   2   1   1   1
  0.1108074538635572E+00   2   1   2   1
  0.3953458873283485E+00   2   2   1   1
  0.5397338483152547E-02   2   2   2   1
  0.4182372795424907E+00   2   2   2   2
  0.3891140087942480E+00   3   3   1   1
  0.1404509839539750E-01   3   3   2   1
  0.4038785263371024E+00   3   3   2   2
  0.4062918833186735E+00   3   3   3   3
  0.7537794410936850E-01   4   3   1   1
 -0.1063440405553328E+00   4   3   2   1
 -0.7859460068838822E-02   4   3   2   2
 -0.5374685000991218E-02   4   3   3   3
  0.1112788074716491E+00   4   3   4   3
  0.4608230195892721E+00   4   4   1   1
 -0.7592844339715393E-01   4   4   2   1
  0.4209189522198528E+00   4   4   2   2
  0.4101543141776390E+00   4   4   3   3
  0.8165529131727794E-01   4   4   4   3
  0.5010645275074463E+00   4   4   4   4
  0.1579447421307417E+00   3   1   3   1
  0.8983171006087262E-01   3   2   3   1
  0.1386081026954403E+00   3   2   3   2
  0.3899336543221277E-01   4   1   3   1
 -0.6793273145725968E-01   4   1   3   2
  0.1035191069931255E+00   4   1   4   1
 -0.1560281588987750E+00   4   2   3   1
 -0.9302898959534930E-01   4   2   3   2
 -0.3778510468361482E-01   4   2   4   1
  0.1666905544989293E+00   4   2   4   2
 -0.1567538497748546E+01   1   1   0   0
  0.1346460594389278E+00   2   1   0   0
 -0.1159446827390969E+01   2   2   0   0
 -0.1361478997636485E+01   3   3   0   0
 -0.1063878377855330E+00   4   3   0   0
 -0.9967516127114231E+00   4   4   0   0
 -5.0581030967895413E-01   1   0   0   0
  1.8958644338093536E-01   2   0   0   0
 -3.3490383886005715E-01   3   0   0   0
  5.3040514035762443E-01   4   0   0   0
  0.1805555425057728E+01   0   0   0   0
