 &FCI NORB=  2,NELEC=  2,MS2= 0,
  ORBSYM=1,5,
  ISYM=1,
 /
  0.6747559268385961E+00   1   1   1   1
  0.6637114013301870E+00   2   2   1   1
  0.6976515044276353E+00   2   2   2   2
  0.1812104619941235E+00   2   1   2   1
 -0.1253309786667645E+01   1   1   0   0
 -0.4750688491089999E+00   2   2   0   0
 -5.7855385982904894E-01   1   0   0   0
  6.7114349155725073E-01   2   0   0   0
  0.7151043390810812E+00   0   0   0   0
