 &FCI NORB=  6,NELEC=  6,MS2= 0,
  ORBSYM=1,1,1,5,5,5,
  ISYM=1,
 /
  0.3748047489121501E+00   1   1   1   1
 -0.7254738829789355E-01   2   1   1   1
  0.1046011329815401E+00   2   1   2   1
  0.3220510964750655E+00   2   2   1   1
 -0.2279385920012009E-01   2   2   2   1
  0.3266622487430210E+00   2   2   2   2
  0.6892944213532799E-02   3   1   1   1
  0.3010625224588057E-01   3   1   2   1
 -0.1761479302868861E-01   3   1   2   2
  0.5582905196015060E-01   3   1   3   1
  0.7151007035102593E-01   3   2   1   1
 -0.5875267367450344E-01   3   2   2   1
  0.7804910629896866E-02   3   2   2   2
  0.2935388743786582E-01   3   2   3   1
  0.8489109257319204E-01   3   2   3   2
  0.3106266375188993E+00   3   3   1   1
  0.3075114169366927E-01   3   3   2   1
  0.3126326264762768E+00   3   3   2   2
  0.3339504372625856E-01   3   3   3   1
  0.9157432768439056E-02   3   3   3   2
  0.3618376458733613E+00   3   3   3   3
  0.2992924424257417E+00   4   4   1   1
  0.3565244466608732E-01   4   4   2   1
  0.3017070256384121E+00   4   4   2   2
  0.3408779803519275E-01   4   4   3   1
  0.7535707770112463E-02   4   4   3   2
  0.3428921607261942E+00   4   4   3   3
  0.3361954115877261E+00   4   4   4   4
 -0.6916998799648647E-01   5   4   1   1
  0.5737192071535581E-01   5   4   2   1
 -0.6860916459852998E-03   5   4   2   2
 -0.3297677084699841E-01   5   4   3   1
 -0.8059400012161556E-01   5   4   3   2
 -0.7631190460734545E-02   5   4   3   3
 -0.5690982316523943E-02   5   4   4   4
  0.8390140507478880E-01   5   4   5   4
  0.3258844475901110E+00   5   5   1   1
 -0.2304354125236151E-01   5   5   2   1
  0.3235297061756972E+00   5   5   2   2
 -0.1256663366637569E-01   5   5   3   1
  0.4902977173014023E-02   5   5   3   2
  0.3181350989628403E+00   5   5   3   3
  0.3044056905813605E+00   5   5   4   4
 -0.7214762427936124E-02   5   5   5   4
  0.3335399842519449E+00   5   5   5   5
 -0.8016082458901126E-02   6   4   1   1
 -0.2926234367011624E-01   6   4   2   1
  0.1283743577647505E-01   6   4   2   2
 -0.5331382840478585E-01   6   4   3   1
 -0.3225645609400610E-01   6   4   3   2
 -0.3506081428408880E-01   6   4   3   3
 -0.3496160396146800E-01   6   4   4   4
  0.3023062116554476E-01   6   4   5   4
  0.1496355113468448E-01   6   4   5   5
  0.5522818943807811E-01   6   4   6   4
 -0.7535930849309590E-01   6   5   1   1
  0.1035453098227947E+00   6   5   2   1
 -0.2430545950550307E-01   6   5   2   2
  0.2858398566526420E-01   6   5   3   1
 -0.6138890220920752E-01   6   5   3   2
  0.3343439265920822E-01   6   5   3   3
  0.3152375215446396E-01   6   5   4   4
  0.6001420232008542E-01   6   5   5   4
 -0.2542532816572671E-01   6   5   5   5
 -0.2916515867448231E-01   6   5   6   4
  0.1112888446415237E+00   6   5   6   5
  0.3950432334318099E+00   6   6   1   1
 -0.7640604563408097E-01   6   6   2   1
  0.3423040130231203E+00   6   6   2   2
  0.7628279297436841E-02   6   6   3   1
  0.7817578526986757E-01   6   6   3   2
  0.3353588743173128E+00   6   6   3   3
  0.3168689561135163E+00   6   6   4   4
 -0.7391163494534006E-01   6   6   5   4
  0.3487523080453535E+00   6   6   5   5
 -0.9415835886593806E-02   6   6   6   4
 -0.8333088078330710E-01   6   6   6   5
  0.4333526349161769E+00   6   6   6   6
  0.1269082304764814E+00   4   1   4   1
  0.9781643435083066E-01   4   2   4   1
  0.1206681564584598E+00   4   2   4   2
  0.3861253103973344E-01   4   3   4   1
 -0.2316539761270339E-02   4   3   4   2
  0.9273802587306447E-01   4   3   4   3
 -0.4716270449185411E-01   5   1   4   1
  0.1748497930324125E-01   5   1   4   2
 -0.5335608114380862E-01   5   1   4   3
  0.8216095320761072E-01   5   1   5   1
  0.7620375128492371E-01   5   2   4   1
  0.7318864762978901E-01   5   2   4   2
 -0.4246718991380707E-01   5   2   4   3
 -0.1127789330340670E-01   5   2   5   1
  0.1046713867076536E+00   5   2   5   2
 -0.9987158043103724E-01   5   3   4   1
 -0.1176802894890857E+00   5   3   4   2
  0.1550149879344135E-02   5   3   4   3
 -0.1217190377315490E-01   5   3   5   1
 -0.7519681237929525E-01   5   3   5   2
  0.1244873611092787E+00   5   3   5   3
  0.1042071152977834E-02   6   1   4   1
 -0.2376841283553812E-01   6   1   4   2
 -0.3993527983256857E-01   6   1   4   3
 -0.3014652688641166E-01   6   1   5   1
  0.4969066771034392E-01   6   1   5   2
  0.2217612516820989E-01   6   1   5   3
  0.7415533158308403E-01   6   1   6   1
 -0.4791740465067065E-01   6   2   4   1
  0.1274474038522194E-01   6   2   4   2
 -0.5422057984114132E-01   6   2   4   3
  0.7917403531477392E-01   6   2   5   1
 -0.1194377705331412E-01   6   2   5   2
 -0.1425322965542297E-01   6   2   5   3
 -0.2912007173516418E-01   6   2   6   1
  0.8316112469997065E-01   6   2   6   2
 -0.1310750504301483E+00   6   3   4   1
 -0.1033580243880385E+00   6   3   4   2
 -0.4000784624855557E-01   6   3   4   3
  0.4789612094087734E-01   6   3   5   1
 -0.8126778143065183E-01   6   3   5   2
  0.1075676605975441E+00   6   3   5   3
 -0.1225373171021976E-02   6   3   6   1
  0.5171782461180873E-01   6   3   6   2
  0.1451531575161363E+00   6   3   6   3
 -0.1921870869620014E+01   1   1   0   0
  0.1218527925166699E+00   2   1   0   0
 -0.1643916029012469E+01   2   2   0   0
 -0.5997909686131106E-01   3   1   0   0
 -0.1381067543875636E+00   3   2   0   0
 -0.1317087791317827E+01   3   3   0   0
 -0.1734206871495560E+01   4   4   0   0
  0.1714290847394024E+00   5   4   0   0
 -0.1503623593795374E+01   5   5   0   0
  0.3910570886451965E-01   6   4   0   0
  0.1244223489140889E+00   6   5   0   0
 -0.1281064718618910E+01   6   6   0   0
 -5.3588840636427071E-01   1   0   0   0
 -2.9500682548249252E-01   2   0   0   0
  3.8175688771850658E-01   3   0   0   0
 -4.4358891071446732E-01   4   0   0   0
  1.3328234990891030E-01   5   0   0   0
  6.1482304079685024E-01   6   0   0   0
  0.3624999738000516E+01   0   0   0   0
