 &FCI NORB=  6,NELEC=  6,MS2= 0,
  ORBSYM=1,1,1,5,5,5,
  ISYM=1,
 /
  0.4432180863014960E+00   1   1   1   1
 -0.8157604544018315E-01   2   1   1   1
  0.1022167990616122E+00   2   1   2   1
  0.3749912767145626E+00   2   2   1   1
 -0.2086705222963252E-01   2   2   2   1
  0.3814609627754591E+00   2   2   2   2
  0.3888771051774457E-02   3   1   1   1
  0.3419273849615080E-01   3   1   2   1
 -0.1581641899177086E-01   3   1   2   2
  0.5569056747042921E-01   3   1   3   1
  0.8592807355110413E-01   3   2   1   1
 -0.6410239719378179E-01   3   2   2   1
  0.1541464541446378E-01   3   2   2   2
  0.1776990458709081E-01   3   2   3   1
  0.8680810285433246E-01   3   2   3   2
  0.3802944161152445E+00   3   3   1   1
  0.1303909504407420E-01   3   3   2   1
  0.3746823638615711E+00   3   3   2   2
  0.3442280828584215E-01   3   3   3   1
  0.2447942773900233E-01   3   3   3   2
  0.4263533666550627E+00   3   3   3   3
  0.3587068053006380E+00   4   4   1   1
  0.2623866784783015E-01   4   4   2   1
  0.3579363636897996E+00   4   4   2   2
  0.3697972693680301E-01   4   4   3   1
  0.1662013234925289E-01   4   4   3   2
  0.3970192679344646E+00   4   4   3   3
  0.3884329488888327E+00   4   4   4   4
 -0.8254616503903797E-01   5   4   1   1
  0.6121187299014308E-01   5   4   2   1
 -0.3144558981230335E-02   5   4   2   2
 -0.2659442914690498E-01   5   4   3   1
 -0.8009092974622660E-01   5   4   3   2
 -0.2260186238948168E-01   5   4   3   3
 -0.1491001697288467E-01   5   4   4   4
  0.8741821378830553E-01   5   4   5   4
  0.3824102496318050E+00   5   5   1   1
 -0.2188576051643819E-01   5   5   2   1
  0.3754761601149154E+00   5   5   2   2
 -0.4946669572898785E-02   5   5   3   1
  0.1251974034884415E-01   5   5   3   2
  0.3839704275012266E+00   5   5   3   3
  0.3631948984924616E+00   5   5   4   4
 -0.1672122332221197E-01   5   5   5   4
  0.3909262007915965E+00   5   5   5   5
 -0.5637562753391777E-02   6   4   1   1
 -0.3205325028389167E-01   6   4   2   1
  0.7538905144345080E-02   6   4   2   2
 -0.4954692187181405E-01   6   4   3   1
 -0.2286206433827533E-01   6   4   3   2
 -0.3681184571145493E-01   6   4   3   3
 -0.3735587770632554E-01   6   4   4   4
  0.2100572472625852E-01   6   4   5   4
  0.9428297534968707E-02   6   4   5   5
  0.5203831219780318E-01   6   4   6   4
 -0.8468209568733479E-01   6   5   1   1
  0.9801288946980005E-01   6   5   2   1
 -0.2390436886450163E-01   6   5   2   2
  0.3134120650166677E-01   6   5   3   1
 -0.6577276190824816E-01   6   5   3   2
  0.1593097445474306E-01   6   5   3   3
  0.1821411228884001E-01   6   5   4   4
  0.6308886584084582E-01   6   5   5   4
 -0.2608185491566697E-01   6   5   5   5
 -0.3193964060343829E-01   6   5   6   4
  0.1075313276513939E+00   6   5   6   5
  0.4749448638302607E+00   6   6   1   1
 -0.8814510172811219E-01   6   6   2   1
  0.4061161033633085E+00   6   6   2   2
  0.4551118880772836E-02   6   6   3   1
  0.9736835721658660E-01   6   6   3   2
  0.4203761538671497E+00   6   6   3   3
  0.3861222367738918E+00   6   6   4   4
 -0.9091340608072203E-01   6   6   5   4
  0.4178839879416684E+00   6   6   5   5
 -0.7063086665873977E-02   6   6   6   4
 -0.9845617582280206E-01   6   6   6   5
  0.5399501930158013E+00   6   6   6   6
  0.1343662638100455E+00   4   1   4   1
  0.1020095702270289E+00   4   2   4   1
  0.1279644034009117E+00   4   2   4   2
  0.4528797391220486E-01   4   3   4   1
  0.2905120546880186E-02   4   3   4   2
  0.8440576635934829E-01   4   3   4   3
 -0.5221622943706469E-01   5   1   4   1
  0.1448664499097433E-01   5   1   4   2
 -0.5209315016684050E-01   5   1   4   3
  0.7889065620409173E-01   5   1   5   1
  0.8543537550648850E-01   5   2   4   1
  0.8728836319926264E-01   5   2   4   2
 -0.3147897524797499E-01   5   2   4   3
 -0.9432876169702717E-02   5   2   5   1
  0.1092953088420138E+00   5   2   5   2
 -0.1060405447922703E+00   5   3   4   1
 -0.1207556180211749E+00   5   3   4   2
 -0.7803967737657154E-02   5   3   4   3
 -0.2499646162032451E-02   5   3   5   1
 -0.8817567571035016E-01   5   3   5   2
  0.1301380796048683E+00   5   3   5   3
  0.1971512229988001E-02   6   1   4   1
 -0.2479315617098283E-01   6   1   4   2
 -0.3264259378631791E-01   6   1   4   3
 -0.2959633808835753E-01   6   1   5   1
  0.3809445805193716E-01   6   1   5   2
  0.2183313362744786E-01   6   1   5   3
  0.6824015216372722E-01   6   1   6   1
 -0.5180897501032126E-01   6   2   4   1
  0.6957126732534052E-02   6   2   4   2
 -0.5123676081440984E-01   6   2   4   3
  0.7205172509487229E-01   6   2   5   1
 -0.1089451070813519E-01   6   2   5   2
 -0.6711832295058571E-02   6   2   5   3
 -0.2788215635444338E-01   6   2   6   1
  0.7682495794247046E-01   6   2   6   2
 -0.1375124369739125E+00   6   3   4   1
 -0.1075593085565816E+00   6   3   4   2
 -0.4717137557450106E-01   6   3   4   3
  0.5266685891702700E-01   6   3   5   1
 -0.9113557337263146E-01   6   3   5   2
  0.1144338348497689E+00   6   3   5   3
 -0.2328478095869543E-02   6   3   6   1
  0.5731356905585444E-01   6   3   6   2
  0.1567299096801942E+00   6   3   6   3
 -0.2372802450023410E+01   1   1   0   0
  0.1519753322011840E+00   2   1   0   0
 -0.1948065464217156E+01   2   2   0   0
 -0.6502981022341614E-01   3   1   0   0
 -0.1834131981721467E+00   3   2   0   0
 -0.1392829315279579E+01   3   3   0   0
 -0.2117125617436662E+01   4   4   0   0
  0.2213635987756193E+00   5   4   0   0
 -0.1715199983652574E+01   5   5   0   0
  0.4248183188694116E-01   6   4   0   0
  0.1612595804557587E+00   6   5   0   0
 -0.1171065177576155E+01   6   6   0   0
 -6.9877126256317057E-01   1   0   0   0
 -3.3093042309549636E-01   2   0   0   0
  6.8425834385887152E-01   3   0   0   0
 -5.5773699777791119E-01   4   0   0   0
  2.5135845399137902E-01   5   0   0   0
  1.1661978080547661E+00   6   0   0   0
  0.4871220254238641E+01   0   0   0   0
