 &FCI NORB=  8,NELEC=  8,MS2= 0,
  ORBSYM=1,1,1,1,5,5,5,5,
  ISYM=1,
 /
  0.3262568171609829E+00   1   1   1   1
 -0.6577712152379483E-01   2   1   1   1
  0.8504839328855027E-01   2   1   2   1
  0.2516431584045580E+00   2   2   1   1
  0.5175264518407902E-02   2   2   2   1
  0.2748372645319058E+00   2   2   2   2
  0.3003754500523987E-02   3   1   1   1
 -0.3490936645473779E-01   3   1   2   1
  0.1812468282906426E-01   3   1   2   2
  0.6605037123307750E-01   3   1   3   1
 -0.6312363127184546E-01   3   2   1   1
  0.5337539829517362E-01   3   2   2   1
 -0.3651042949503475E-02   3   2   2   2
 -0.8377582643244945E-02   3   2   3   1
  0.7003894011021014E-01   3   2   3   2
  0.2814452617404887E+00   3   3   1   1
 -0.2177112890482586E-01   3   3   2   1
  0.2556314835071645E+00   3   3   2   2
 -0.3405682867304759E-02   3   3   3   1
 -0.1199932522300350E-01   3   3   3   2
  0.2826179945801324E+00   3   3   3   3
  0.3458991550215713E-02   4   1   1   1
 -0.5184468910550322E-03   4   1   2   1
  0.2139257704437909E-01   4   1   2   2
  0.2535243801414380E-01   4   1   3   1
 -0.2476955278141419E-01   4   1   3   2
 -0.1151014097212104E-01   4   1   3   3
  0.4194525193804471E-01   4   1   4   1
  0.8337847052929176E-02   4   2   1   1
  0.2780615129331985E-01   4   2   2   1
  0.4047803155148374E-02   4   2   2   2
 -0.4117119107645083E-01   4   2   3   1
 -0.1947456007446582E-01   4   2   3   2
 -0.7396802668144660E-02   4   2   3   3
  0.1383718719341144E-01   4   2   4   1
  0.5791911648413033E-01   4   2   4   2
  0.7130578572991915E-01   4   3   1   1
 -0.6555383756647402E-01   4   3   2   1
 -0.1662838758507175E-01   4   3   2   2
 -0.1242807484925993E-01   4   3   3   1
 -0.5307742830160425E-01   4   3   3   2
  0.2856469667514630E-01   4   3   3   3
 -0.1872226364832301E-01   4   3   4   1
  0.2378844617092507E-02   4   3   4   2
  0.8673265278933312E-01   4   3   4   3
  0.2706329580012640E+00   4   4   1   1
  0.2089782534104457E-01   4   4   2   1
  0.2684908397569535E+00   4   4   2   2
 -0.3461626399104780E-01   4   4   3   1
 -0.8274099091441313E-02   4   4   3   2
  0.2742806791787676E+00   4   4   3   3
  0.1604095948685704E-02   4   4   4   1
  0.3935524856110078E-01   4   4   4   2
  0.5416407418762523E-02   4   4   4   3
  0.3151415234199994E+00   4   4   4   4
  0.2591234827701563E+00   5   5   1   1
  0.2263936520291411E-01   5   5   2   1
  0.2570162958661266E+00   5   5   2   2
 -0.3493697420322701E-01   5   5   3   1
 -0.7253231894223305E-02   5   5   3   2
  0.2602579843847421E+00   5   5   3   3
  0.1340133851662919E-02   5   5   4   1
  0.3758423285506382E-01   5   5   4   2
  0.4503773120796487E-02   5   5   4   3
  0.2939877577401870E+00   5   5   4   4
  0.2840292043387291E+00   5   5   5   5
 -0.6878262874474579E-01   6   5   1   1
  0.6390425613955517E-01   6   5   2   1
  0.2084837295603048E-01   6   5   2   2
  0.1607437273520596E-01   6   5   3   1
  0.5077125373282194E-01   6   5   3   2
 -0.2644673205248142E-01   6   5   3   3
  0.2058164293351217E-01   6   5   4   1
 -0.2676802100833733E-02   6   5   4   2
 -0.8122525717799955E-01   6   5   4   3
 -0.4552145349103323E-02   6   5   4   4
 -0.3752165538852940E-02   6   5   5   5
  0.8284859132453871E-01   6   5   6   5
  0.2790522884098429E+00   6   6   1   1
 -0.2167436223097865E-01   6   6   2   1
  0.2542760379799898E+00   6   6   2   2
 -0.3471709519923163E-02   6   6   3   1
 -0.7005081960240869E-02   6   6   3   2
  0.2749109476210352E+00   6   6   3   3
 -0.1490091630672462E-01   6   6   4   1
 -0.4859298683918240E-02   6   6   4   2
  0.2771227009618924E-01   6   6   4   3
  0.2706007541855975E+00   6   6   4   4
  0.2582581979523567E+00   6   6   5   5
 -0.2655966522789004E-01   6   6   6   5
  0.2781928193392364E+00   6   6   6   6
 -0.7301585970365130E-02   7   5   1   1
 -0.2808081916806015E-01   7   5   2   1
 -0.2264235620252178E-02   7   5   2   2
  0.4125552976722119E-01   7   5   3   1
  0.2213512681637584E-01   7   5   3   2
  0.5071520889814553E-02   7   5   3   3
 -0.1567312729280479E-01   7   5   4   1
 -0.5542372809147238E-01   7   5   4   2
 -0.2265768099366303E-02   7   5   4   3
 -0.3739566371322065E-01   7   5   4   4
 -0.3658969191582442E-01   7   5   5   5
  0.2523508094730894E-02   7   5   6   5
  0.9542051243737318E-02   7   5   6   6
  0.5783052391916503E-01   7   5   7   5
 -0.6499723278595913E-01   7   6   1   1
  0.5443666106828365E-01   7   6   2   1
 -0.5276790760465899E-02   7   6   2   2
 -0.8461196752918929E-02   7   6   3   1
  0.6746295869351003E-01   7   6   3   2
 -0.9838421927867387E-02   7   6   3   3
 -0.2235086651318842E-01   7   6   4   1
 -0.2151566753127800E-01   7   6   4   2
 -0.5388600597840797E-01   7   6   4   3
 -0.9482746396873560E-02   7   6   4   4
 -0.8373770555077690E-02   7   6   5   5
  0.5205292088281742E-01   7   6   6   5
 -0.1278445408597285E-01   7   6   6   6
  0.1883511690261835E-01   7   6   7   5
  0.7106722446454269E-01   7   6   7   6
  0.2592810864366900E+00   7   7   1   1
  0.3748067351022923E-02   7   7   2   1
  0.2775406870958664E+00   7   7   2   2
  0.1456873117243558E-01   7   7   3   1
 -0.5490605473255361E-02   7   7   3   2
  0.2648084826870962E+00   7   7   3   3
  0.2025514985659627E-01   7   7   4   1
  0.4057818636797012E-02   7   7   4   2
 -0.1769573291132080E-01   7   7   4   3
  0.2787274068306669E+00   7   7   4   4
  0.2635182623635771E+00   7   7   5   5
  0.1579777420194643E-01   7   7   6   5
  0.2610996906319744E+00   7   7   6   6
 -0.3627824637938008E-02   7   7   7   5
 -0.6353313184858926E-02   7   7   7   6
  0.2894080671537361E+00   7   7   7   7
  0.3999267251839037E-02   8   5   1   1
 -0.5914111982378774E-03   8   5   2   1
  0.2178684947840040E-01   8   5   2   2
  0.2477087950973467E-01   8   5   3   1
 -0.2300430709029033E-01   8   5   3   2
 -0.1340947554152325E-01   8   5   3   3
  0.4054212784863449E-01   8   5   4   1
  0.1547832042624795E-01   8   5   4   2
 -0.1928801993909660E-01   8   5   4   3
  0.2202042412011382E-02   8   5   4   4
  0.2011651502587621E-02   8   5   5   5
  0.1984297363861484E-01   8   5   6   5
 -0.1190707625814899E-01   8   5   6   6
 -0.1412669167177092E-01   8   5   7   5
 -0.2434025778520617E-01   8   5   7   6
  0.2102961239811069E-01   8   5   7   7
  0.4157126084597465E-01   8   5   8   5
 -0.2787034503108113E-02   8   6   1   1
  0.3509573628124778E-01   8   6   2   1
 -0.1489072326031028E-01   8   6   2   2
 -0.6383787241855492E-01   8   6   3   1
  0.8427162987531066E-02   8   6   3   2
  0.3981635916066891E-02   8   6   3   3
 -0.2417880611450450E-01   8   6   4   1
  0.4229249025792195E-01   8   6   4   2
  0.1423288287146796E-01   8   6   4   3
  0.3779751927375657E-01   8   6   4   4
  0.3515575589877485E-01   8   6   5   5
 -0.1309452061484435E-01   8   6   6   5
  0.3677633408892812E-02   8   6   6   6
 -0.4171115134280814E-01   8   6   7   5
  0.8949715447850811E-02   8   6   7   6
 -0.1640022147905330E-01   8   6   7   7
 -0.2457040640944965E-01   8   6   8   5
  0.6725150974457780E-01   8   6   8   6
  0.6943455515080348E-01   8   7   1   1
 -0.8731888457827545E-01   8   7   2   1
 -0.4841731210306340E-02   8   7   2   2
  0.3499540747256869E-01   8   7   3   1
 -0.5685021285927962E-01   8   7   3   2
  0.2381616092599892E-01   8   7   3   3
  0.6909333829890696E-03   8   7   4   1
 -0.2888479137050963E-01   8   7   4   2
  0.7098349486221234E-01   8   7   4   3
 -0.2401560690097926E-01   8   7   4   4
 -0.2105577791202572E-01   8   7   5   5
 -0.6728548748052959E-01   8   7   6   5
  0.2339439336447389E-01   8   7   6   6
  0.2829545783348995E-01   8   7   7   5
 -0.5829908100820050E-01   8   7   7   6
 -0.3635181869671440E-02   8   7   7   7
  0.7465598678041956E-03   8   7   8   5
 -0.3777727518220064E-01   8   7   8   6
  0.9675358486565695E-01   8   7   8   7
  0.3444851358656983E+00   8   8   1   1
 -0.6948654915088594E-01   8   8   2   1
  0.2665984442316482E+00   8   8   2   2
  0.2781911197166535E-02   8   8   3   1
 -0.6777118945183563E-01   8   8   3   2
  0.3011247129134572E+00   8   8   3   3
  0.3727916094467281E-02   8   8   4   1
  0.9784912457782371E-02   8   8   4   2
  0.7843652885019477E-01   8   8   4   3
  0.2934025317549800E+00   8   8   4   4
  0.2742692692927211E+00   8   8   5   5
 -0.7337642535820058E-01   8   8   6   5
  0.2970721571295337E+00   8   8   6   6
 -0.8143914864183300E-02   8   8   7   5
 -0.7100677525278162E-01   8   8   7   6
  0.2789497492371233E+00   8   8   7   7
  0.4647260155453021E-02   8   8   8   5
 -0.2789011796364899E-02   8   8   8   6
  0.7716480268114037E-01   8   8   8   7
  0.3781023818436743E+00   8   8   8   8
  0.1191717910187132E+00   5   1   5   1
  0.7336611801602964E-01   5   2   5   1
  0.1088095304563024E+00   5   2   5   2
 -0.4669277404026436E-01   5   3   5   1
 -0.2357203905118126E-02   5   3   5   2
  0.6445267235623292E-01   5   3   5   3
  0.4050354319059153E-03   5   4   5   1
  0.2563146381047099E-01   5   4   5   2
 -0.5130461932053492E-02   5   4   5   3
  0.5986623982305025E-01   5   4   5   4
 -0.4740830860565391E-01   6   1   5   1
  0.3248084302086570E-01   6   1   5   2
  0.4065520076912411E-01   6   1   5   3
  0.2597388823339863E-01   6   1   5   4
  0.7902991503464328E-01   6   1   6   1
  0.8831793320939474E-01   6   2   5   1
  0.8171737691250582E-01   6   2   5   2
  0.6636219984321988E-02   6   2   5   3
 -0.1871600415377884E-02   6   2   5   4
 -0.1176618379808265E-01   6   2   6   1
  0.1030279107162619E+00   6   2   6   2
  0.6658946083201510E-01   6   3   5   1
  0.6232129722142855E-01   6   3   5   2
 -0.1288322224899242E-01   6   3   5   3
 -0.3390235181548714E-01   6   3   5   4
 -0.6302923557370666E-02   6   3   6   1
  0.6240163654091258E-01   6   3   6   2
  0.8423845686703044E-01   6   3   6   3
  0.4802761850532550E-01   6   4   5   1
  0.3050840632682872E-02   6   4   5   2
 -0.6208300299679906E-01   6   4   5   3
  0.4965526454176777E-02   6   4   5   4
 -0.4195234194040980E-01   6   4   6   1
 -0.2053184192146241E-02   6   4   6   2
  0.1357795002845426E-01   6   4   6   3
  0.6559922595527379E-01   6   4   6   4
 -0.5130699195587458E-02   7   1   5   1
 -0.2622370351443007E-01   7   1   5   2
  0.2811349662564911E-01   7   1   5   3
 -0.2508019088973397E-01   7   1   5   4
 -0.2394137339425719E-01   7   1   6   1
  0.1670257443063041E-01   7   1   6   2
 -0.6298834793912819E-02   7   1   6   3
 -0.2522352137375850E-01   7   1   6   4
  0.4503164265946923E-01   7   1   7   1
 -0.3715414677260934E-01   7   2   5   1
  0.6857348492630146E-02   7   2   5   2
  0.4495855650956974E-01   7   2   5   3
 -0.3775358376766123E-01   7   2   5   4
  0.4197671443523350E-01   7   2   6   1
  0.1836235328400373E-03   7   2   6   2
  0.3122057806675542E-01   7   2   6   3
 -0.4581751872696973E-01   7   2   6   4
  0.8823779999484336E-02   7   2   7   1
  0.7576030854801755E-01   7   2   7   2
  0.9010080573948430E-01   7   3   5   1
  0.8283399366425691E-01   7   3   5   2
  0.1924938747343788E-02   7   3   5   3
 -0.1627009582643332E-02   7   3   5   4
 -0.1192352980122107E-01   7   3   6   1
  0.1002418482523186E+00   7   3   6   2
  0.6390176049580609E-01   7   3   6   3
 -0.3639087522541301E-02   7   3   6   4
  0.1298424006944389E-01   7   3   7   1
 -0.5242610835179545E-03   7   3   7   2
  0.1056654018739113E+00   7   3   7   3
 -0.7664144705541390E-01   7   4   5   1
 -0.1091844775319820E+00   7   4   5   2
  0.3131505168833980E-02   7   4   5   3
 -0.2509084746847177E-01   7   4   5   4
 -0.2944791545776754E-01   7   4   6   1
 -0.8488854811301876E-01   7   4   6   2
 -0.6526574124244387E-01   7   4   6   3
 -0.3865486738531918E-02   7   4   6   4
  0.2538775443694722E-01   7   4   7   1
 -0.6597763599780634E-02   7   4   7   2
 -0.8740238187594018E-01   7   4   7   3
  0.1171174252596086E+00   7   4   7   4
 -0.1068890922901369E-02   8   1   5   1
 -0.1527983933096496E-03   8   1   5   2
  0.2157230792602711E-01   8   1   5   3
  0.3405284685797833E-01   8   1   5   4
 -0.1193955073726918E-02   8   1   6   1
  0.1709751148017468E-01   8   1   6   2
 -0.3944051782525786E-01   8   1   6   3
 -0.2068538459178449E-01   8   1   6   4
  0.2147520628569992E-01   8   1   7   1
 -0.3088461115832842E-01   8   1   7   2
  0.1583874885354072E-01   8   1   7   3
  0.2978873285070602E-03   8   1   7   4
  0.5733243419840689E-01   8   1   8   1
  0.5870241308678925E-02   8   2   5   1
  0.2645311394598110E-01   8   2   5   2
 -0.2602590792645024E-01   8   2   5   3
  0.2540408364567530E-01   8   2   5   4
  0.2302318735071564E-01   8   2   6   1
 -0.1342077093339737E-01   8   2   6   2
  0.6455340574202508E-02   8   2   6   3
  0.2750709434694805E-01   8   2   6   4
 -0.4290151651560144E-01   8   2   7   1
 -0.9349827001994770E-02   8   2   7   2
 -0.1465206325243005E-01   8   2   7   3
 -0.2689106316166619E-01   8   2   7   4
 -0.2061135900062840E-01   8   2   8   1
  0.4444861199867056E-01   8   2   8   2
  0.4846535612472809E-01   8   3   5   1
 -0.3018071921635163E-01   8   3   5   2
 -0.4247121498211940E-01   8   3   5   3
 -0.2559121795396554E-01   8   3   5   4
 -0.7804014860041687E-01   8   3   6   1
  0.1197918399280231E-01   8   3   6   2
  0.6806445233784198E-02   8   3   6   3
  0.4399365394642535E-01   8   3   6   4
  0.2258935598051905E-01   8   3   7   1
 -0.4366062444880522E-01   8   3   7   2
  0.1289150508940630E-01   8   3   7   3
  0.3228768346746477E-01   8   3   7   4
  0.9721573171135311E-03   8   3   8   1
 -0.2319975814341475E-01   8   3   8   2
  0.8383267610767869E-01   8   3   8   3
  0.1256787114473803E+00   8   4   5   1
  0.7897595151944863E-01   8   4   5   2
 -0.4921829445625047E-01   8   4   5   3
  0.7541617548889884E-03   8   4   5   4
 -0.4908078385157601E-01   8   4   6   1
  0.9489338642920311E-01   8   4   6   2
  0.7203223134620092E-01   8   4   6   3
  0.5241203537029774E-01   8   4   6   4
 -0.5688163556847585E-02   8   4   7   1
 -0.3960267126036850E-01   8   4   7   2
  0.9812152460130291E-01   8   4   7   3
 -0.8481290555654489E-01   8   4   7   4
 -0.1247245614892589E-02   8   4   8   1
  0.6964614026900483E-02   8   4   8   2
  0.5336890977143930E-01   8   4   8   3
  0.1409780620068782E+00   8   4   8   4
 -0.2171248874716886E+01   1   1   0   0
  0.1202717852794630E+00   2   1   0   0
 -0.1902015403917612E+01   2   2   0   0
  0.3794394798518894E-01   3   1   0   0
  0.1835499993831798E+00   3   2   0   0
 -0.1759371857694060E+01   3   3   0   0
 -0.3286373594403505E-01   4   1   0   0
 -0.6311353287602776E-01   4   2   0   0
 -0.1594615166875875E+00   4   3   0   0
 -0.1489417832187688E+01   4   4   0   0
 -0.2014112120638977E+01   5   5   0   0
  0.1604894106510256E+00   6   5   0   0
 -0.1866203043765385E+01   6   6   0   0
  0.9041680278944456E-01   7   5   0   0
  0.1488458005222916E+00   7   6   0   0
 -0.1579947364429819E+01   7   7   0   0
 -0.1748003003853416E-01   8   5   0   0
 -0.3340538204811466E-01   8   6   0   0
 -0.1269144757261055E+00   8   7   0   0
 -0.1500897629568955E+01   8   8   0   0
 -5.4860429772869512E-01   1   0   0   0
 -3.9819298934547204E-01   2   0   0   0
  1.0033905624624986E-01   3   0   0   0
  4.9267695297981690E-01   4   0   0   0
 -4.9211687592252273E-01   5   0   0   0
 -2.6974359281721344E-01   6   0   0   0
  2.9324238903520239E-01   7   0   0   0
  6.5334856668261776E-01   8   0   0   0
  0.5726190062325936E+01   0   0   0   0
